
  ___ ___ ___ _ _ _  
 |   |   |_  | | | | 
 | | | | | . | | | | 
 |__ |  _|___|_____|  1.3.0
 |___|_|             

User:   gpaw@gpaw-vm
Date:   Sun Oct 22 21:42:21 2017
Arch:   x86_64
Pid:    23707
Python: 3.5.2
gpaw:   /home/gpaw/.local/lib/python3.5/site-packages/gpaw
_gpaw:  /home/gpaw/.local/bin/gpaw-python
ase:    /home/gpaw/.local/lib/python3.5/site-packages/ase (version 3.15.0)
numpy:  /home/gpaw/.local/lib/python3.5/site-packages/numpy (version 1.13.3)
scipy:  /home/gpaw/.local/lib/python3.5/site-packages/scipy (version 0.19.1)
units:  Angstrom and eV
cores:  4

Reading from graphene_gs.gpw
Read dipole, energy, free_energy
Reading input parameters:
  h: 0.2
  kpts: {gamma: True,
         size: [25 25  1]}
  mode: {ecut: 600.0,
         name: pw}
  occupations: {name: fermi-dirac,
                width: 0.01}
  random: True
  xc: PBE

Initialize ...

C-setup:
  name: Carbon
  id: 4aa54d4b901d75f77cc0ea3eec22967b
  Z: 6
  valence: 4
  core: 2
  charge: 0.0
  file: /home/gpaw/gpaw-setups-0.9.20000/C.PBE.gz
  cutoffs: 0.64(comp), 1.14(filt), 1.14(core), lmax=2
  valence states:
                energy  radius
    2s(2.00)   -13.751   0.635
    2p(2.00)    -5.284   0.635
    *s          13.461   0.635
    *p          21.927   0.635
    *d           0.000   0.635

  Using partial waves for C as LCAO basis

Reference energy: -2055.256231

Spin-paired calculation

Occupation numbers:
  Fermi-Dirac: width=0.0100 eV

Convergence criteria:
  Maximum total energy change: 0.0005 eV / electron
  Maximum integral of absolute density change: 0.0001 electrons
  Maximum integral of absolute eigenstate change: 4e-08 eV^2
  Maximum number of iterations: 333

Symmetries present (total): 6

  ( 1  1  0)  ( 1  0  0)  ( 0  1  0)  ( 0 -1  0)  (-1  0  0)  (-1 -1  0)
  ( 0 -1  0)  ( 0  1  0)  (-1 -1  0)  (-1  0  0)  ( 1  1  0)  ( 1  0  0)
  ( 0  0  1)  ( 0  0  1)  ( 0  0  1)  ( 0  0  1)  ( 0  0  1)  ( 0  0  1)

625 k-points: 25 x 25 x 1 Monkhorst-Pack grid
65 k-points in the irreducible part of the Brillouin zone
       k-points in crystal coordinates                weights
   0:     0.00000000    0.00000000    0.00000000          1/625
   1:     0.04000000    0.00000000    0.00000000          6/625
   2:     0.08000000   -0.04000000    0.00000000          6/625
   3:     0.08000000    0.00000000    0.00000000          6/625
   4:     0.12000000   -0.04000000    0.00000000         12/625
   5:     0.12000000    0.00000000    0.00000000          6/625
   6:     0.16000000   -0.08000000    0.00000000          6/625
   7:     0.16000000   -0.04000000    0.00000000         12/625
   8:     0.16000000    0.00000000    0.00000000          6/625
   9:     0.20000000   -0.08000000    0.00000000         12/625
          ...
  64:     0.48000000    0.48000000    0.00000000          6/625

Wave functions: Plane wave expansion
  Cutoff energy: 600.000 eV
  Number of coefficients (min, max): 3435, 3563
  Using FFTW library
  Eigensolver: None  MatrixOperator buffer_size: default value or 
                              see value of nblock in input file
Diagonalizer layout: Serial LAPACKOrthonormalizer layout: Serial LAPACK 

Davidson(niter=1, smin=None, normalize=True) 

Densities:
  Coarse grid: 12*12*100 grid
  Fine grid: 24*24*200 grid
  Total Charge: 0.000000 

Density mixing:
  Method: separate
  Backend: pulay
  Linear mixing parameter: 0.05
  Mixing with 5 old densities
  Damping of long wave oscillations: 50 

Hamiltonian:
  XC and Coulomb potentials evaluated on a 24*24*200 grid
  Using the PBE Exchange-Correlation functional
 

Memory estimate:
  Process memory now: 106.09 MiB
  Calculator: 23.51 MiB
    Density: 6.32 MiB
      Arrays: 2.86 MiB
      Localized functions: 2.37 MiB
      Mixer: 1.10 MiB
    Hamiltonian: 1.92 MiB
      Arrays: 1.87 MiB
      XC: 0.00 MiB
      Poisson: 0.00 MiB
      vbar: 0.05 MiB
    Wavefunctions: 15.27 MiB
      Arrays psit_nG: 6.96 MiB
      Eigensolver: 0.72 MiB
      Projections: 0.05 MiB
      Projectors: 5.92 MiB
      Overlap op: 0.44 MiB
      PW-descriptor: 1.18 MiB

Total number of cores used: 4
Parallelization over k-points: 4

Number of atoms: 2
Number of atomic orbitals: 8
Number of bands in calculation: 8
Bands to converge: occupied states only
Number of valence electrons: 8

... initialized

Input parameters:
  convergence: {bands: 5}
  fixdensity: True
  kpts: [[ 0.          0.          0.        ],
         [ 0.00813008  0.00813008  0.        ],
         [ 0.01626016  0.01626016  0.        ],
         ..., ,
         [ 0.02702703  0.          0.        ],
         [ 0.01351351  0.          0.        ],
         [ 0.          0.          0.        ]]
  nbands: 10
  symmetry: off

Initialize ...

C-setup:
  name: Carbon
  id: 4aa54d4b901d75f77cc0ea3eec22967b
  Z: 6
  valence: 4
  core: 2
  charge: 0.0
  file: /home/gpaw/gpaw-setups-0.9.20000/C.PBE.gz
  cutoffs: 0.64(comp), 1.14(filt), 1.14(core), lmax=2
  valence states:
                energy  radius
    2s(2.00)   -13.751   0.635
    2p(2.00)    -5.284   0.635
    *s          13.461   0.635
    *p          21.927   0.635
    *d           0.000   0.635

  Using partial waves for C as LCAO basis

Reference energy: -2055.256231

Spin-paired calculation

Occupation numbers:
  Fixed Fermi level
  Fermi-Dirac: width=0.0100 eV

Convergence criteria:
  Maximum total energy change: 0.0005 eV / electron
  Maximum integral of absolute density change: 0.0001 electrons
  Maximum integral of absolute eigenstate change: 4e-08 eV^2
  Maximum number of iterations: 333

Symmetries present (total): 1

  ( 1  0  0)
  ( 0  1  0)
  ( 0  0  1)

100 k-points
100 k-points in the irreducible part of the Brillouin zone
       k-points in crystal coordinates                weights
   0:     0.00000000    0.00000000    0.00000000          1/100
   1:     0.00813008    0.00813008    0.00000000          1/100
   2:     0.01626016    0.01626016    0.00000000          1/100
   3:     0.02439024    0.02439024    0.00000000          1/100
   4:     0.03252033    0.03252033    0.00000000          1/100
   5:     0.04065041    0.04065041    0.00000000          1/100
   6:     0.04878049    0.04878049    0.00000000          1/100
   7:     0.05691057    0.05691057    0.00000000          1/100
   8:     0.06504065    0.06504065    0.00000000          1/100
   9:     0.07317073    0.07317073    0.00000000          1/100
          ...
  99:     0.00000000    0.00000000    0.00000000          1/100

Wave functions: Plane wave expansion
  Cutoff energy: 600.000 eV
  Number of coefficients (min, max): 3435, 3567
  Using FFTW library
  Eigensolver: None  MatrixOperator buffer_size: default value or 
                              see value of nblock in input file
Diagonalizer layout: Serial LAPACKOrthonormalizer layout: Serial LAPACK 

Davidson(niter=1, smin=None, normalize=True) 

No density mixing

Memory estimate:
  Process memory now: 106.09 MiB
  Calculator: 34.11 MiB
    Density: 6.32 MiB
      Arrays: 2.86 MiB
      Localized functions: 2.37 MiB
      Mixer: 1.10 MiB
    Hamiltonian: 1.92 MiB
      Arrays: 1.87 MiB
      XC: 0.00 MiB
      Poisson: 0.00 MiB
      vbar: 0.05 MiB
    Wavefunctions: 25.87 MiB
      Arrays psit_nG: 13.61 MiB
      Eigensolver: 0.83 MiB
      Projections: 0.10 MiB
      Projectors: 9.25 MiB
      Overlap op: 0.55 MiB
      PW-descriptor: 1.54 MiB

Total number of cores used: 4
Parallelization over k-points: 4

Number of atoms: 2
Number of atomic orbitals: 8
Number of bands in calculation: 10
Bands to converge: 5 lowest bands
Number of valence electrons: 8

... initialized

Initializing position-dependent things.

Creating initial wave functions:
  8 bands from LCAO basis set
  2 bands from random numbers

                    
                    
                    
                    
       C   C        
                    
                    
                    
                    

Positions:
   0 C      0.000000    0.000000   10.000000
   1 C      1.230000    0.710141   10.000000

Unit cell:
           periodic     x           y           z      points  spacing
  1. axis:    yes    1.230000   -2.130422    0.000000    12     0.1775
  2. axis:    yes    1.230000    2.130422    0.000000    12     0.1775
  3. axis:    no     0.000000    0.000000   20.000000   100     0.2000

  Lengths:   2.460000   2.460000  20.000000
  Angles:   90.000000  90.000000 120.000000

Effective grid spacing dv^(1/3) = 0.1938

                     log10-error:    total        iterations:
           time      wfs    density  energy       fermi  poisson
iter:   1  21:42:26  +1.42          -16.910060    28            
iter:   2  21:42:28  +0.73          -17.149158    30            
iter:   3  21:42:30  +0.14          -17.172028    28            
iter:   4  21:42:32  -0.53          -17.177187    29            
iter:   5  21:42:35  -1.07          -17.178818    30            
iter:   6  21:42:37  -1.57          -17.179406    26            
iter:   7  21:42:39  -2.00          -17.179639    26            
iter:   8  21:42:41  -2.39          -17.179743    29            
iter:   9  21:42:43  -2.72          -17.179795    29            
iter:  10  21:42:45  -3.00          -17.179821    29            
iter:  11  21:42:47  -3.28          -17.179836    30            
iter:  12  21:42:49  -3.54          -17.179844    27            
iter:  13  21:42:51  -3.81          -17.179848    29            
iter:  14  21:42:53  -4.06          -17.179850    29            
iter:  15  21:42:55  -4.32          -17.179852    29            
iter:  16  21:42:57  -4.57          -17.179853    29            
iter:  17  21:42:59  -4.82          -17.179853    29            
iter:  18  21:43:01  -5.05          -17.179853    29            
iter:  19  21:43:03  -5.30          -17.179853    29            
iter:  20  21:43:05  -5.52          -17.179853    29            
iter:  21  21:43:07  -5.76          -17.179853    29            
iter:  22  21:43:09  -5.99          -17.179853    29            
iter:  23  21:43:11  -6.22          -17.179853    29            
iter:  24  21:43:13  -6.44          -17.179853    29            
iter:  25  21:43:15  -6.67          -17.179853    29            
iter:  26  21:43:17  -6.89          -17.179854    29            
iter:  27  21:43:19  -7.11          -17.179854    29            
iter:  28  21:43:21  -7.32          -17.179854    29            
iter:  29  21:43:23  -7.54          -17.179854    29            

Converged after 29 iterations.

Dipole moment: (0.000000, 1.007120, -0.000000) |e|*Ang

Energy contributions relative to reference atoms: (reference = -2055.256231)

Kinetic:        +19.443556
Potential:      -18.642738
External:        +0.000000
XC:             -18.026103
Entropy (-ST):   -0.000277
Local:           +0.045570
--------------------------
Free energy:    -17.179992
Extrapolated:   -17.179854

Fixed Fermi level: -2.50543

Warning: Showing only first 2 kpts
 Kpt  Band  Eigenvalues  Occupancy
  0     2     -5.51113    0.02000
  0     3     -5.50689    0.02000
  0     4      0.76140    0.00000
  0     5      1.49952    0.00000

  1     2     -5.53075    0.02000
  1     3     -5.51736    0.02000
  1     4      0.76780    0.00000
  1     5      1.50601    0.00000


Timing:                              incl.     excl.
-----------------------------------------------------------
Hamiltonian:                         0.308     0.002   0.0% |
 Atomic:                             0.087     0.087   0.1% |
  XC Correction:                     0.000     0.000   0.0% |
 Calculate atomic Hamiltonians:      0.052     0.052   0.1% |
 Communicate:                        0.000     0.000   0.0% |
 Initialize Hamiltonian:             0.000     0.000   0.0% |
 Poisson:                            0.002     0.002   0.0% |
 XC 3D grid:                         0.164     0.164   0.3% |
LCAO initialization:                 0.965     0.067   0.1% |
 LCAO eigensolver:                   0.110     0.002   0.0% |
  Calculate projections:             0.001     0.001   0.0% |
  DenseAtomicCorrection:             0.005     0.005   0.0% |
  Distribute overlap matrix:         0.001     0.001   0.0% |
  Orbital Layouts:                   0.004     0.004   0.0% |
  Potential matrix:                  0.076     0.076   0.1% |
  Sum over cells:                    0.021     0.021   0.0% |
 LCAO to grid:                       0.506     0.506   0.8% |
 Set positions (LCAO WFS):           0.282     0.000   0.0% |
  Basic WFS set positions:           0.000     0.000   0.0% |
  Basis functions set positions:     0.000     0.000   0.0% |
  TCI: Calculate S, T, P:            0.281     0.281   0.4% |
PWDescriptor:                        0.048     0.048   0.1% |
Redistribute:                        0.001     0.001   0.0% |
SCF-cycle:                          59.107     3.788   5.9% |-|
 Davidson:                          41.243    23.270  36.2% |-------------|
  calc. matrices:                   14.278    14.278  22.2% |--------|
  diagonalize:                       0.346     0.346   0.5% |
  rotate_psi:                        3.349     3.349   5.2% |-|
 Orthonormalize:                     0.382     0.003   0.0% |
  Band Layouts:                      0.002     0.000   0.0% |
   Inverse Cholesky:                 0.001     0.001   0.0% |
  calc_s_matrix:                     0.026     0.026   0.0% |
  projections:                       0.305     0.305   0.5% |
  rotate_psi:                        0.046     0.046   0.1% |
 Subspace diag:                     13.695     0.147   0.2% |
  Band Layouts:                      0.137     0.024   0.0% |
   Diagonalize:                      0.096     0.096   0.1% |
   Distribute results:               0.017     0.017   0.0% |
  calc_h_matrix:                    10.298    10.298  16.0% |-----|
  rotate_psi:                        3.113     3.113   4.8% |-|
Set symmetry:                        0.034     0.034   0.1% |
Other:                               3.844     3.844   6.0% |-|
-----------------------------------------------------------
Total:                                        64.308 100.0%

Memory usage: 197.34 MiB
Date: Sun Oct 22 21:43:25 2017
