
  ___ ___ ___ _ _ _  
 |   |   |_  | | | | 
 | | | | | . | | | | 
 |__ |  _|___|_____|  1.3.0
 |___|_|             

User:   gpaw@gpaw-vm
Date:   Sun Oct 22 21:41:43 2017
Arch:   x86_64
Pid:    23707
Python: 3.5.2
gpaw:   /home/gpaw/.local/lib/python3.5/site-packages/gpaw
_gpaw:  /home/gpaw/.local/bin/gpaw-python
ase:    /home/gpaw/.local/lib/python3.5/site-packages/ase (version 3.15.0)
numpy:  /home/gpaw/.local/lib/python3.5/site-packages/numpy (version 1.13.3)
scipy:  /home/gpaw/.local/lib/python3.5/site-packages/scipy (version 0.19.1)
units:  Angstrom and eV
cores:  4

Input parameters:
  h: 0.2
  kpts: {gamma: True,
         size: (25, 25, 1)}
  mode: {ecut: 600.0,
         name: pw}
  occupations: {name: fermi-dirac,
                width: 0.01}
  random: True
  xc: PBE

System changes: positions, numbers, cell, pbc, initial_charges, initial_magmoms 

Initialize ...

C-setup:
  name: Carbon
  id: 4aa54d4b901d75f77cc0ea3eec22967b
  Z: 6
  valence: 4
  core: 2
  charge: 0.0
  file: /home/gpaw/gpaw-setups-0.9.20000/C.PBE.gz
  cutoffs: 0.64(comp), 1.14(filt), 1.14(core), lmax=2
  valence states:
                energy  radius
    2s(2.00)   -13.751   0.635
    2p(2.00)    -5.284   0.635
    *s          13.461   0.635
    *p          21.927   0.635
    *d           0.000   0.635

  Using partial waves for C as LCAO basis

Reference energy: -2055.256231

Spin-paired calculation

Occupation numbers:
  Fermi-Dirac: width=0.0100 eV

Convergence criteria:
  Maximum total energy change: 0.0005 eV / electron
  Maximum integral of absolute density change: 0.0001 electrons
  Maximum integral of absolute eigenstate change: 4e-08 eV^2
  Maximum number of iterations: 333

Symmetries present (total): 6

  ( 1  1  0)  ( 1  0  0)  ( 0  1  0)  ( 0 -1  0)  (-1  0  0)  (-1 -1  0)
  ( 0 -1  0)  ( 0  1  0)  (-1 -1  0)  (-1  0  0)  ( 1  1  0)  ( 1  0  0)
  ( 0  0  1)  ( 0  0  1)  ( 0  0  1)  ( 0  0  1)  ( 0  0  1)  ( 0  0  1)

625 k-points: 25 x 25 x 1 Monkhorst-Pack grid
65 k-points in the irreducible part of the Brillouin zone
       k-points in crystal coordinates                weights
   0:     0.00000000    0.00000000    0.00000000          1/625
   1:     0.04000000    0.00000000    0.00000000          6/625
   2:     0.08000000   -0.04000000    0.00000000          6/625
   3:     0.08000000    0.00000000    0.00000000          6/625
   4:     0.12000000   -0.04000000    0.00000000         12/625
   5:     0.12000000    0.00000000    0.00000000          6/625
   6:     0.16000000   -0.08000000    0.00000000          6/625
   7:     0.16000000   -0.04000000    0.00000000         12/625
   8:     0.16000000    0.00000000    0.00000000          6/625
   9:     0.20000000   -0.08000000    0.00000000         12/625
          ...
  64:     0.48000000    0.48000000    0.00000000          6/625

Wave functions: Plane wave expansion
  Cutoff energy: 600.000 eV
  Number of coefficients (min, max): 3435, 3563
  Using FFTW library
  Eigensolver: None  MatrixOperator buffer_size: default value or 
                              see value of nblock in input file
Diagonalizer layout: Serial LAPACKOrthonormalizer layout: Serial LAPACK 

Davidson(niter=1, smin=None, normalize=True) 

Densities:
  Coarse grid: 12*12*100 grid
  Fine grid: 24*24*200 grid
  Total Charge: 0.000000 

Density mixing:
  Method: separate
  Backend: pulay
  Linear mixing parameter: 0.05
  Mixing with 5 old densities
  Damping of long wave oscillations: 50 

Hamiltonian:
  XC and Coulomb potentials evaluated on a 24*24*200 grid
  Using the PBE Exchange-Correlation functional
 

Memory estimate:
  Process memory now: 75.39 MiB
  Calculator: 23.51 MiB
    Density: 6.32 MiB
      Arrays: 2.86 MiB
      Localized functions: 2.37 MiB
      Mixer: 1.10 MiB
    Hamiltonian: 1.92 MiB
      Arrays: 1.87 MiB
      XC: 0.00 MiB
      Poisson: 0.00 MiB
      vbar: 0.05 MiB
    Wavefunctions: 15.27 MiB
      Arrays psit_nG: 6.96 MiB
      Eigensolver: 0.72 MiB
      Projections: 0.05 MiB
      Projectors: 5.92 MiB
      Overlap op: 0.44 MiB
      PW-descriptor: 1.18 MiB

Total number of cores used: 4
Parallelization over k-points: 4

Number of atoms: 2
Number of atomic orbitals: 8
Number of bands in calculation: 8
Bands to converge: occupied states only
Number of valence electrons: 8

... initialized

Initializing position-dependent things.

Density initialized from atomic densities
Creating initial wave functions:
  8 bands from LCAO basis set

                    
                    
                    
                    
       C   C        
                    
                    
                    
                    

Positions:
   0 C      0.000000    0.000000   10.000000
   1 C      1.230000    0.710141   10.000000

Unit cell:
           periodic     x           y           z      points  spacing
  1. axis:    yes    1.230000   -2.130422    0.000000    12     0.1775
  2. axis:    yes    1.230000    2.130422    0.000000    12     0.1775
  3. axis:    no     0.000000    0.000000   20.000000   100     0.2000

  Lengths:   2.460000   2.460000  20.000000
  Angles:   90.000000  90.000000 120.000000

Effective grid spacing dv^(1/3) = 0.1938

                     log10-error:    total        iterations:
           time      wfs    density  energy       fermi  poisson
iter:   1  21:41:47  +1.89   +inf   -18.993607    0             
iter:   2  21:41:48  +0.66   +inf   -19.442248    0             
iter:   3  21:41:49  -0.18   +inf   -19.489169    0             
iter:   4  21:41:51  -0.84  -0.79   -19.344096    7             
iter:   5  21:41:52  +0.49  -0.81   -18.601105    3             
iter:   6  21:41:54  -0.43  -1.21   -18.719271    8             
iter:   7  21:41:55  -1.23  -1.13   -18.754159    8             
iter:   8  21:41:57  -1.24  -1.10   -18.581892    10            
iter:   9  21:41:58  -0.63  -1.25   -18.422080    5             
iter:  10  21:42:00  -1.55  -1.69   -18.426306    1             
iter:  11  21:42:01  -1.77  -1.73   -18.431080    0             
iter:  12  21:42:03  -2.30  -1.93   -18.437422    10            
iter:  13  21:42:04  -3.01  -2.26   -18.436791    0             
iter:  14  21:42:06  -3.08  -2.41   -18.436938    0             
iter:  15  21:42:07  -3.56  -2.48   -18.436811    0             
iter:  16  21:42:09  -3.42  -2.51   -18.437140    0             
iter:  17  21:42:10  -3.54  -2.70   -18.436969    0             
iter:  18  21:42:12  -4.38  -3.75   -18.436973    0             
iter:  19  21:42:13  -5.27  -3.98   -18.436973    0             
iter:  20  21:42:15  -5.90  -4.10   -18.436973    0             
iter:  21  21:42:16  -6.34  -4.13   -18.436973    0             
iter:  22  21:42:18  -6.79  -4.23   -18.436973    0             
iter:  23  21:42:19  -7.10  -4.17   -18.436973    0             
iter:  24  21:42:21  -7.63  -4.15   -18.436973    0             

Converged after 24 iterations.

Dipole moment: (0.000000, 1.007120, -0.000000) |e|*Ang

Energy contributions relative to reference atoms: (reference = -2055.256231)

Kinetic:        +18.186266
Potential:      -18.642715
External:        +0.000000
XC:             -18.026089
Entropy (-ST):   -0.000000
Local:           +0.045565
--------------------------
Free energy:    -18.436973
Extrapolated:   -18.436973

Fermi level: -2.50543

Warning: Showing only first 2 kpts
 Kpt  Band  Eigenvalues  Occupancy
  0     2     -5.51117    0.00320
  0     3     -5.50694    0.00320
  0     4      0.76138    0.00000
  0     5      1.69194    0.00000

  1     2     -5.66688    0.01920
  1     3     -5.59098    0.01920
  1     4      0.81299    0.00000
  1     5      1.74477    0.00000


Writing to graphene_gs.gpw (mode='')

Timing:                              incl.     excl.
-----------------------------------------------------------
Hamiltonian:                         0.381     0.002   0.0% |
 Atomic:                             0.089     0.089   0.1% |
  XC Correction:                     0.000     0.000   0.0% |
 Calculate atomic Hamiltonians:      0.124     0.124   0.1% |
 Communicate:                        0.000     0.000   0.0% |
 Initialize Hamiltonian:             0.000     0.000   0.0% |
 Poisson:                            0.002     0.002   0.0% |
 XC 3D grid:                         0.164     0.164   0.2% |
LCAO initialization:                 0.739     0.055   0.1% |
 LCAO eigensolver:                   0.104     0.002   0.0% |
  Calculate projections:             0.001     0.001   0.0% |
  DenseAtomicCorrection:             0.004     0.004   0.0% |
  Distribute overlap matrix:         0.001     0.001   0.0% |
  Orbital Layouts:                   0.003     0.003   0.0% |
  Potential matrix:                  0.080     0.080   0.1% |
  Sum over cells:                    0.014     0.014   0.0% |
 LCAO to grid:                       0.332     0.332   0.3% |
 Set positions (LCAO WFS):           0.248     0.000   0.0% |
  Basic WFS set positions:           0.001     0.001   0.0% |
  Basis functions set positions:     0.000     0.000   0.0% |
  TCI: Calculate S, T, P:            0.247     0.247   0.2% |
PWDescriptor:                        0.024     0.024   0.0% |
SCF-cycle:                          35.313     1.132   1.1% |
 Davidson:                          18.142    11.203  10.9% |---|
  calc. matrices:                    5.647     5.647   5.5% |-|
  diagonalize:                       0.124     0.124   0.1% |
  rotate_psi:                        1.167     1.167   1.1% |
 Density:                            4.670     0.001   0.0% |
  Atomic density matrices:           0.049     0.049   0.0% |
  Mix:                               1.468     1.468   1.4% ||
  Multipole moments:                 0.006     0.006   0.0% |
  Pseudo density:                    3.146     3.018   2.9% ||
   Symmetrize density:               0.128     0.128   0.1% |
 Hamiltonian:                        5.604     0.035   0.0% |
  Atomic:                            1.730     1.730   1.7% ||
   XC Correction:                    0.000     0.000   0.0% |
  Calculate atomic Hamiltonians:     0.405     0.405   0.4% |
  Communicate:                       0.005     0.005   0.0% |
  Poisson:                           0.034     0.034   0.0% |
  XC 3D grid:                        3.394     3.394   3.3% ||
 Orthonormalize:                     0.226     0.002   0.0% |
  Band Layouts:                      0.001     0.000   0.0% |
   Inverse Cholesky:                 0.001     0.001   0.0% |
  calc_s_matrix:                     0.012     0.012   0.0% |
  projections:                       0.189     0.189   0.2% |
  rotate_psi:                        0.021     0.021   0.0% |
 Subspace diag:                      5.539     0.075   0.1% |
  Band Layouts:                      0.061     0.012   0.0% |
   Diagonalize:                      0.040     0.040   0.0% |
   Distribute results:               0.009     0.009   0.0% |
  calc_h_matrix:                     4.319     4.319   4.2% |-|
  rotate_psi:                        1.084     1.084   1.1% |
Set symmetry:                        0.135     0.135   0.1% |
Other:                              65.850    65.850  64.3% |-------------------------|
-----------------------------------------------------------
Total:                                       102.443 100.0%

Memory usage: 197.34 MiB
Date: Sun Oct 22 21:43:25 2017
