
  ___ ___ ___ _ _ _  
 |   |   |_  | | | | 
 | | | | | . | | | | 
 |__ |  _|___|_____|  1.3.0
 |___|_|             

User:   gpaw@gpaw-vm
Date:   Sun Oct 22 17:40:25 2017
Arch:   x86_64
Pid:    17635
Python: 3.5.2
gpaw:   /home/gpaw/.local/lib/python3.5/site-packages/gpaw
_gpaw:  /home/gpaw/.local/bin/gpaw-python
ase:    /home/gpaw/.local/lib/python3.5/site-packages/ase (version 3.15.0)
numpy:  /home/gpaw/.local/lib/python3.5/site-packages/numpy (version 1.13.3)
scipy:  /home/gpaw/.local/lib/python3.5/site-packages/scipy (version 0.19.1)
units:  Angstrom and eV
cores:  4

Reading from Si_gs.gpw
Read dipole, energy, free_energy
Reading input parameters:
  kpts: [8 8 8]
  mode: {ecut: 200.0,
         name: pw}
  occupations: {name: fermi-dirac,
                width: 0.01}
  random: True
  xc: PBE

Initialize ...

Si-setup:
  name: Silicon
  id: ee77bee481871cc2cb65ac61239ccafa
  Z: 14
  valence: 4
  core: 10
  charge: 0.0
  file: /home/gpaw/gpaw-setups-0.9.20000/Si.PBE.gz
  cutoffs: 1.06(comp), 1.86(filt), 2.06(core), lmax=2
  valence states:
                energy  radius
    3s(2.00)   -10.812   1.058
    3p(2.00)    -4.081   1.058
    *s          16.399   1.058
    *p          23.130   1.058
    *d           0.000   1.058

  Using partial waves for Si as LCAO basis

Reference energy: -15772.688500

Spin-paired calculation

Occupation numbers:
  Fermi-Dirac: width=0.0100 eV

Convergence criteria:
  Maximum total energy change: 0.0005 eV / electron
  Maximum integral of absolute density change: 0.0001 electrons
  Maximum integral of absolute eigenstate change: 4e-08 eV^2
  Maximum number of iterations: 333

Symmetries present (total): 24

  ( 1  0  0)  ( 1  0  0)  ( 1  0 -1)  ( 1  0 -1)  ( 1 -1  0)  ( 1 -1  0)
  ( 0  1  0)  ( 0  0  1)  ( 0  1 -1)  ( 0  0 -1)  ( 0 -1  1)  ( 0 -1  0)
  ( 0  0  1)  ( 0  1  0)  ( 0  0 -1)  ( 0  1 -1)  ( 0 -1  0)  ( 0 -1  1)

  ( 0  1  0)  ( 0  1  0)  ( 0  1 -1)  ( 0  1 -1)  ( 0  0  1)  ( 0  0  1)
  ( 1  0  0)  ( 0  0  1)  ( 1  0 -1)  ( 0  0 -1)  ( 1  0  0)  ( 0  1  0)
  ( 0  0  1)  ( 1  0  0)  ( 0  0 -1)  ( 1  0 -1)  ( 0  1  0)  ( 1  0  0)

  ( 0  0 -1)  ( 0  0 -1)  ( 0 -1  1)  ( 0 -1  1)  ( 0 -1  0)  ( 0 -1  0)
  ( 1  0 -1)  ( 0  1 -1)  ( 1 -1  0)  ( 0 -1  0)  ( 1 -1  0)  ( 0 -1  1)
  ( 0  1 -1)  ( 1  0 -1)  ( 0 -1  0)  ( 1 -1  0)  ( 0 -1  1)  ( 1 -1  0)

  (-1  1  0)  (-1  1  0)  (-1  0  1)  (-1  0  1)  (-1  0  0)  (-1  0  0)
  (-1  0  1)  (-1  0  0)  (-1  1  0)  (-1  0  0)  (-1  1  0)  (-1  0  1)
  (-1  0  0)  (-1  0  1)  (-1  0  0)  (-1  1  0)  (-1  0  1)  (-1  1  0)
Note: your k-points are not as symmetric as your crystal!

512 k-points: 8 x 8 x 8 Monkhorst-Pack grid
60 k-points in the irreducible part of the Brillouin zone
       k-points in crystal coordinates                weights
   0:     0.06250000    0.06250000   -0.06250000          6/512
   1:     0.06250000    0.06250000    0.06250000          2/512
   2:     0.18750000   -0.06250000   -0.06250000          6/512
   3:     0.18750000    0.06250000   -0.18750000         12/512
   4:     0.18750000    0.06250000   -0.06250000         12/512
   5:     0.18750000    0.06250000    0.06250000          6/512
   6:     0.18750000    0.18750000   -0.18750000          6/512
   7:     0.18750000    0.18750000   -0.06250000          6/512
   8:     0.18750000    0.18750000    0.06250000          6/512
   9:     0.18750000    0.18750000    0.18750000          2/512
          ...
  59:     0.43750000    0.43750000    0.43750000          2/512

Wave functions: Plane wave expansion
  Cutoff energy: 200.000 eV
  Number of coefficients (min, max): 251, 271
  Using FFTW library
  Eigensolver: None  MatrixOperator buffer_size: default value or 
                              see value of nblock in input file
Diagonalizer layout: Serial LAPACKOrthonormalizer layout: Serial LAPACK 

Davidson(niter=1, smin=None, normalize=True) 

Densities:
  Coarse grid: 10*10*10 grid
  Fine grid: 20*20*20 grid
  Total Charge: 0.000000 

Density mixing:
  Method: separate
  Backend: pulay
  Linear mixing parameter: 0.05
  Mixing with 5 old densities
  Damping of long wave oscillations: 50 

Hamiltonian:
  XC and Coulomb potentials evaluated on a 20*20*20 grid
  Using the PBE Exchange-Correlation functional
 

Memory estimate:
  Process memory now: 52.38 MiB
  Calculator: 1.69 MiB
    Density: 0.41 MiB
      Arrays: 0.20 MiB
      Localized functions: 0.13 MiB
      Mixer: 0.08 MiB
    Hamiltonian: 0.13 MiB
      Arrays: 0.13 MiB
      XC: 0.00 MiB
      Poisson: 0.00 MiB
      vbar: 0.00 MiB
    Wavefunctions: 1.14 MiB
      Arrays psit_nG: 0.50 MiB
      Eigensolver: 0.06 MiB
      Projections: 0.05 MiB
      Projectors: 0.42 MiB
      Overlap op: 0.03 MiB
      PW-descriptor: 0.08 MiB

Total number of cores used: 4
Parallelization over k-points: 4

Number of atoms: 2
Number of atomic orbitals: 8
Number of bands in calculation: 8
Bands to converge: occupied states only
Number of valence electrons: 8

... initialized

Input parameters:
  convergence: {bands: 8}
  fixdensity: True
  kpts: {npoints: 300,
         path: GXWKGLUWLK,UX}
  nbands: 16
  symmetry: off

Initialize ...

Si-setup:
  name: Silicon
  id: ee77bee481871cc2cb65ac61239ccafa
  Z: 14
  valence: 4
  core: 10
  charge: 0.0
  file: /home/gpaw/gpaw-setups-0.9.20000/Si.PBE.gz
  cutoffs: 1.06(comp), 1.86(filt), 2.06(core), lmax=2
  valence states:
                energy  radius
    3s(2.00)   -10.812   1.058
    3p(2.00)    -4.081   1.058
    *s          16.399   1.058
    *p          23.130   1.058
    *d           0.000   1.058

  Using partial waves for Si as LCAO basis

Reference energy: -15772.688500

Spin-paired calculation

Occupation numbers:
  Fixed Fermi level
  Fermi-Dirac: width=0.0100 eV

Convergence criteria:
  Maximum total energy change: 0.0005 eV / electron
  Maximum integral of absolute density change: 0.0001 electrons
  Maximum integral of absolute eigenstate change: 4e-08 eV^2
  Maximum number of iterations: 333

Symmetries present (total): 1

  ( 1  0  0)
  ( 0  1  0)
  ( 0  0  1)

300 k-points
300 k-points in the irreducible part of the Brillouin zone
       k-points in crystal coordinates                weights
   0:     0.00000000    0.00000000    0.00000000          1/300
   1:     0.01086957    0.00000000    0.01086957          1/300
   2:     0.02173913    0.00000000    0.02173913          1/300
   3:     0.03260870    0.00000000    0.03260870          1/300
   4:     0.04347826    0.00000000    0.04347826          1/300
   5:     0.05434783    0.00000000    0.05434783          1/300
   6:     0.06521739    0.00000000    0.06521739          1/300
   7:     0.07608696    0.00000000    0.07608696          1/300
   8:     0.08695652    0.00000000    0.08695652          1/300
   9:     0.09782609    0.00000000    0.09782609          1/300
          ...
 299:     0.50000000    0.00000000    0.50000000          1/300

Wave functions: Plane wave expansion
  Cutoff energy: 200.000 eV
  Number of coefficients (min, max): 246, 273
  Using FFTW library
  Eigensolver: None  MatrixOperator buffer_size: default value or 
                              see value of nblock in input file
Diagonalizer layout: Serial LAPACKOrthonormalizer layout: Serial LAPACK 

Davidson(niter=1, smin=None, normalize=True) 

No density mixing

Memory estimate:
  Process memory now: 53.41 MiB
  Calculator: 8.53 MiB
    Density: 0.41 MiB
      Arrays: 0.20 MiB
      Localized functions: 0.13 MiB
      Mixer: 0.08 MiB
    Hamiltonian: 0.13 MiB
      Arrays: 0.13 MiB
      XC: 0.00 MiB
      Poisson: 0.00 MiB
      vbar: 0.00 MiB
    Wavefunctions: 7.99 MiB
      Arrays psit_nG: 5.00 MiB
      Eigensolver: 0.13 MiB
      Projections: 0.48 MiB
      Projectors: 2.06 MiB
      Overlap op: 0.07 MiB
      PW-descriptor: 0.26 MiB

Total number of cores used: 4
Parallelization over k-points: 4

Number of atoms: 2
Number of atomic orbitals: 8
Number of bands in calculation: 16
Bands to converge: 8 lowest bands
Number of valence electrons: 8

... initialized

Initializing position-dependent things.

Creating initial wave functions:
  8 bands from LCAO basis set
  8 bands from random numbers

                    
                    
                    
                    
           Si       
                    
       Si           
                    
                    
                    
                    

Positions:
   0 Si     0.000000    0.000000    0.000000
   1 Si     1.357675    1.357675    1.357675

Unit cell:
           periodic     x           y           z      points  spacing
  1. axis:    yes    0.000000    2.715350    2.715350    10     0.3135
  2. axis:    yes    2.715350    0.000000    2.715350    10     0.3135
  3. axis:    yes    2.715350    2.715350    0.000000    10     0.3135

  Lengths:   3.840085   3.840085   3.840085
  Angles:   60.000000  60.000000  60.000000

Effective grid spacing dv^(1/3) = 0.3421

                     log10-error:    total        iterations:
           time      wfs    density  energy       fermi  poisson
iter:   1  17:40:29  +1.54           -9.357865    0             
iter:   2  17:40:30  +1.00           -9.448776    0             
iter:   3  17:40:31  +0.24           -9.452243    0             
iter:   4  17:40:32  -0.50           -9.452506    0             
iter:   5  17:40:33  -1.31           -9.452538    0             
iter:   6  17:40:34  -2.04           -9.452544    0             
iter:   7  17:40:35  -2.82           -9.452545    0             
iter:   8  17:40:36  -3.56           -9.452545    0             
iter:   9  17:40:37  -4.34           -9.452545    0             
iter:  10  17:40:38  -5.07           -9.452545    0             
iter:  11  17:40:39  -5.84           -9.452545    0             
iter:  12  17:40:40  -6.57           -9.452545    0             
iter:  13  17:40:41  -7.34           -9.452545    0             
iter:  14  17:40:42  -8.06           -9.452545    0             

Converged after 14 iterations.

Dipole moment: (-2.924069, -2.924069, -2.924069) |e|*Ang

Energy contributions relative to reference atoms: (reference = -15772.688500)

Kinetic:        +17.068663
Potential:      -13.833425
External:        +0.000000
XC:             -12.656686
Entropy (-ST):   -0.000000
Local:           -0.031096
--------------------------
Free energy:     -9.452545
Extrapolated:    -9.452545

Fixed Fermi level: 5.58226

Warning: Showing only first 2 kpts
 Kpt  Band  Eigenvalues  Occupancy
  0     2      5.31348    0.00667
  0     3      5.31655    0.00667
  0     4      7.87213    0.00000
  0     5      7.87213    0.00000

  1     2      5.30439    0.00667
  1     3      5.30674    0.00667
  1     4      7.86753    0.00000
  1     5      7.88378    0.00000


Timing:                              incl.     excl.
-----------------------------------------------------------
Hamiltonian:                         0.128     0.001   0.0% |
 Atomic:                             0.110     0.110   0.6% |
  XC Correction:                     0.000     0.000   0.0% |
 Calculate atomic Hamiltonians:      0.005     0.005   0.0% |
 Communicate:                        0.000     0.000   0.0% |
 Initialize Hamiltonian:             0.000     0.000   0.0% |
 Poisson:                            0.000     0.000   0.0% |
 XC 3D grid:                         0.012     0.012   0.1% |
LCAO initialization:                 1.444     0.068   0.4% |
 LCAO eigensolver:                   0.340     0.020   0.1% |
  Calculate projections:             0.003     0.003   0.0% |
  DenseAtomicCorrection:             0.021     0.021   0.1% |
  Distribute overlap matrix:         0.003     0.003   0.0% |
  Orbital Layouts:                   0.011     0.011   0.1% |
  Potential matrix:                  0.018     0.018   0.1% |
  Sum over cells:                    0.265     0.265   1.5% ||
 LCAO to grid:                       0.172     0.172   0.9% |
 Set positions (LCAO WFS):           0.865     0.001   0.0% |
  Basic WFS set positions:           0.000     0.000   0.0% |
  Basis functions set positions:     0.000     0.000   0.0% |
  TCI: Calculate S, T, P:            0.864     0.864   4.7% |-|
PWDescriptor:                        0.010     0.010   0.1% |
Redistribute:                        0.001     0.001   0.0% |
SCF-cycle:                          14.280     0.335   1.8% ||
 Davidson:                          10.812     5.805  31.9% |------------|
  calc. matrices:                    3.130     3.130  17.2% |------|
  diagonalize:                       1.203     1.203   6.6% |--|
  rotate_psi:                        0.673     0.673   3.7% ||
 Orthonormalize:                     0.147     0.005   0.0% |
  Band Layouts:                      0.005     0.001   0.0% |
   Inverse Cholesky:                 0.004     0.004   0.0% |
  calc_s_matrix:                     0.023     0.023   0.1% |
  projections:                       0.090     0.090   0.5% |
  rotate_psi:                        0.025     0.025   0.1% |
 Subspace diag:                      2.986     0.116   0.6% |
  Band Layouts:                      0.276     0.029   0.2% |
   Diagonalize:                      0.226     0.226   1.2% |
   Distribute results:               0.020     0.020   0.1% |
  calc_h_matrix:                     1.984     1.984  10.9% |---|
  rotate_psi:                        0.610     0.610   3.4% ||
Set symmetry:                        0.042     0.042   0.2% |
Other:                               2.299     2.299  12.6% |----|
-----------------------------------------------------------
Total:                                        18.204 100.0%

Memory usage: 98.04 MiB
Date: Sun Oct 22 17:40:43 2017
