
  ___ ___ ___ _ _ _  
 |   |   |_  | | | | 
 | | | | | . | | | | 
 |__ |  _|___|_____|  1.3.0
 |___|_|             

User:   gpaw@gpaw-vm
Date:   Sun Oct 22 21:25:44 2017
Arch:   x86_64
Pid:    23101
Python: 3.5.2
gpaw:   /home/gpaw/.local/lib/python3.5/site-packages/gpaw
_gpaw:  /home/gpaw/.local/bin/gpaw-python
ase:    /home/gpaw/.local/lib/python3.5/site-packages/ase (version 3.15.0)
numpy:  /home/gpaw/.local/lib/python3.5/site-packages/numpy (version 1.13.3)
scipy:  /home/gpaw/.local/lib/python3.5/site-packages/scipy (version 0.19.1)
units:  Angstrom and eV
cores:  4

Input parameters:
  h: 0.2
  kpts: {gamma: True,
         size: (25, 25, 1)}
  mode: {ecut: 600.0,
         name: pw}
  occupations: {name: fermi-dirac,
                width: 0.01}
  random: True
  symmetry: off
  xc: PBE

System changes: positions, numbers, cell, pbc, initial_charges, initial_magmoms 

Initialize ...

C-setup:
  name: Carbon
  id: 4aa54d4b901d75f77cc0ea3eec22967b
  Z: 6
  valence: 4
  core: 2
  charge: 0.0
  file: /home/gpaw/gpaw-setups-0.9.20000/C.PBE.gz
  cutoffs: 0.64(comp), 1.14(filt), 1.14(core), lmax=2
  valence states:
                energy  radius
    2s(2.00)   -13.751   0.635
    2p(2.00)    -5.284   0.635
    *s          13.461   0.635
    *p          21.927   0.635
    *d           0.000   0.635

  Using partial waves for C as LCAO basis

Reference energy: -2055.256231

Spin-paired calculation

Occupation numbers:
  Fermi-Dirac: width=0.0100 eV

Convergence criteria:
  Maximum total energy change: 0.0005 eV / electron
  Maximum integral of absolute density change: 0.0001 electrons
  Maximum integral of absolute eigenstate change: 4e-08 eV^2
  Maximum number of iterations: 333

Symmetries present (total): 1

  ( 1  0  0)
  ( 0  1  0)
  ( 0  0  1)

625 k-points: 25 x 25 x 1 Monkhorst-Pack grid
625 k-points in the irreducible part of the Brillouin zone
       k-points in crystal coordinates                weights
   0:    -0.48000000   -0.48000000    0.00000000          1/625
   1:    -0.48000000   -0.44000000    0.00000000          1/625
   2:    -0.48000000   -0.40000000    0.00000000          1/625
   3:    -0.48000000   -0.36000000    0.00000000          1/625
   4:    -0.48000000   -0.32000000    0.00000000          1/625
   5:    -0.48000000   -0.28000000    0.00000000          1/625
   6:    -0.48000000   -0.24000000    0.00000000          1/625
   7:    -0.48000000   -0.20000000    0.00000000          1/625
   8:    -0.48000000   -0.16000000    0.00000000          1/625
   9:    -0.48000000   -0.12000000    0.00000000          1/625
          ...
 624:     0.48000000    0.48000000    0.00000000          1/625

Wave functions: Plane wave expansion
  Cutoff energy: 600.000 eV
  Number of coefficients (min, max): 3435, 3563
  Using FFTW library
  Eigensolver: None  MatrixOperator buffer_size: default value or 
                              see value of nblock in input file
Diagonalizer layout: Serial LAPACKOrthonormalizer layout: Serial LAPACK 

Davidson(niter=1, smin=None, normalize=True) 

Densities:
  Coarse grid: 12*12*100 grid
  Fine grid: 24*24*200 grid
  Total Charge: 0.000000 

Density mixing:
  Method: separate
  Backend: pulay
  Linear mixing parameter: 0.05
  Mixing with 5 old densities
  Damping of long wave oscillations: 50 

Hamiltonian:
  XC and Coulomb potentials evaluated on a 24*24*200 grid
  Using the PBE Exchange-Correlation functional
 

Memory estimate:
  Process memory now: 81.21 MiB
  Calculator: 143.07 MiB
    Density: 6.32 MiB
      Arrays: 2.86 MiB
      Localized functions: 2.37 MiB
      Mixer: 1.10 MiB
    Hamiltonian: 1.92 MiB
      Arrays: 1.87 MiB
      XC: 0.00 MiB
      Poisson: 0.00 MiB
      vbar: 0.05 MiB
    Wavefunctions: 134.83 MiB
      Arrays psit_nG: 67.85 MiB
      Eigensolver: 0.72 MiB
      Projections: 0.50 MiB
      Projectors: 58.52 MiB
      Overlap op: 0.44 MiB
      PW-descriptor: 6.82 MiB

Total number of cores used: 4
Parallelization over k-points: 4

Number of atoms: 2
Number of atomic orbitals: 8
Number of bands in calculation: 8
Bands to converge: occupied states only
Number of valence electrons: 8

... initialized

Initializing position-dependent things.

Density initialized from atomic densities
Creating initial wave functions:
  8 bands from LCAO basis set

                    
                    
                    
                    
       C   C        
                    
                    
                    
                    

Positions:
   0 C      0.000000    0.000000   10.000000
   1 C      1.230000    0.710141   10.000000

Unit cell:
           periodic     x           y           z      points  spacing
  1. axis:    yes    1.230000   -2.130422    0.000000    12     0.1775
  2. axis:    yes    1.230000    2.130422    0.000000    12     0.1775
  3. axis:    no     0.000000    0.000000   20.000000   100     0.2000

  Lengths:   2.460000   2.460000  20.000000
  Angles:   90.000000  90.000000 120.000000

Effective grid spacing dv^(1/3) = 0.1938

                     log10-error:    total        iterations:
           time      wfs    density  energy       fermi  poisson
iter:   1  21:26:04  +1.89   +inf   -18.993578    0             
iter:   2  21:26:14  +0.66   +inf   -19.442217    0             
iter:   3  21:26:24  -0.18   +inf   -19.489140    0             
iter:   4  21:26:36  -0.84  -0.79   -19.344066    7             
iter:   5  21:26:47  +0.49  -0.81   -18.601154    3             
iter:   6  21:27:00  -0.43  -1.21   -18.719363    8             
iter:   7  21:27:12  -1.23  -1.13   -18.754291    8             
iter:   8  21:27:23  -1.24  -1.10   -18.581921    10            
iter:   9  21:27:34  -0.63  -1.25   -18.422113    5             
iter:  10  21:27:45  -1.55  -1.69   -18.426336    1             
iter:  11  21:27:56  -1.77  -1.73   -18.431106    0             
iter:  12  21:28:08  -2.30  -1.93   -18.437454    10            
iter:  13  21:28:18  -3.01  -2.26   -18.436822    0             
iter:  14  21:28:29  -3.08  -2.41   -18.436967    0             
iter:  15  21:28:40  -3.56  -2.48   -18.436842    0             
iter:  16  21:28:51  -3.42  -2.51   -18.437169    0             
iter:  17  21:29:02  -3.55  -2.70   -18.436999    0             
iter:  18  21:29:13  -4.39  -3.75   -18.437004    0             
iter:  19  21:29:24  -5.27  -3.98   -18.437003    0             
iter:  20  21:29:35  -5.91  -4.10   -18.437004    0             
iter:  21  21:29:46  -6.34  -4.14   -18.437004    0             
iter:  22  21:29:57  -6.74  -4.23   -18.437004    0             
iter:  23  21:30:08  -7.15  -4.15   -18.437004    0             
iter:  24  21:30:19  -7.64  -4.15   -18.437004    0             

Converged after 24 iterations.

Dipole moment: (-0.000000, 1.007114, -0.000000) |e|*Ang

Energy contributions relative to reference atoms: (reference = -2055.256231)

Kinetic:        +18.186114
Potential:      -18.642604
External:        +0.000000
XC:             -18.026065
Entropy (-ST):   -0.000000
Local:           +0.045552
--------------------------
Free energy:    -18.437004
Extrapolated:   -18.437004

Fermi level: -2.50543

Warning: Showing only first 2 kpts
 Kpt  Band  Eigenvalues  Occupancy
  0     2     -9.04000    0.00320
  0     3     -4.80408    0.00320
  0     4     -0.79101    0.00000
  0     5      5.14339    0.00000

  1     2     -9.39228    0.00320
  1     3     -4.76326    0.00320
  1     4     -0.74137    0.00000
  1     5      5.64372    0.00000


Writing to graphene_gs.gpw (mode='all')

Timing:                              incl.     excl.
-----------------------------------------------------------
Hamiltonian:                         0.606     0.002   0.0% |
 Atomic:                             0.081     0.081   0.0% |
  XC Correction:                     0.000     0.000   0.0% |
 Calculate atomic Hamiltonians:      0.322     0.322   0.1% |
 Communicate:                        0.000     0.000   0.0% |
 Initialize Hamiltonian:             0.000     0.000   0.0% |
 Poisson:                            0.001     0.001   0.0% |
 XC 3D grid:                         0.200     0.200   0.1% |
LCAO initialization:                 4.489     0.056   0.0% |
 LCAO eigensolver:                   0.272     0.013   0.0% |
  Calculate projections:             0.004     0.004   0.0% |
  DenseAtomicCorrection:             0.032     0.032   0.0% |
  Distribute overlap matrix:         0.005     0.005   0.0% |
  Orbital Layouts:                   0.020     0.020   0.0% |
  Potential matrix:                  0.075     0.075   0.0% |
  Sum over cells:                    0.123     0.123   0.0% |
 LCAO to grid:                       3.209     3.209   1.1% |
 Set positions (LCAO WFS):           0.951     0.002   0.0% |
  Basic WFS set positions:           0.000     0.000   0.0% |
  Basis functions set positions:     0.000     0.000   0.0% |
  TCI: Calculate S, T, P:            0.949     0.949   0.3% |
PWDescriptor:                        0.199     0.199   0.1% |
SCF-cycle:                         266.983    12.779   4.5% |-|
 Davidson:                         166.114   102.519  36.4% |--------------|
  calc. matrices:                   52.338    52.338  18.6% |------|
  diagonalize:                       1.246     1.246   0.4% |
  rotate_psi:                       10.010    10.010   3.6% ||
 Density:                           29.892     0.001   0.0% |
  Atomic density matrices:           0.218     0.218   0.1% |
  Mix:                               1.470     1.470   0.5% |
  Multipole moments:                 0.006     0.006   0.0% |
  Pseudo density:                   28.196    28.195  10.0% |---|
   Symmetrize density:               0.001     0.001   0.0% |
 Hamiltonian:                        6.260     0.033   0.0% |
  Atomic:                            1.867     1.866   0.7% |
   XC Correction:                    0.000     0.000   0.0% |
  Calculate atomic Hamiltonians:     0.731     0.731   0.3% |
  Communicate:                       0.055     0.055   0.0% |
  Poisson:                           0.030     0.030   0.0% |
  XC 3D grid:                        3.545     3.545   1.3% ||
 Orthonormalize:                     1.971     0.015   0.0% |
  Band Layouts:                      0.011     0.002   0.0% |
   Inverse Cholesky:                 0.009     0.009   0.0% |
  calc_s_matrix:                     0.110     0.110   0.0% |
  projections:                       1.643     1.643   0.6% |
  rotate_psi:                        0.192     0.192   0.1% |
 Subspace diag:                     49.967     0.702   0.2% |
  Band Layouts:                      0.598     0.122   0.0% |
   Diagonalize:                      0.394     0.394   0.1% |
   Distribute results:               0.082     0.082   0.0% |
  calc_h_matrix:                    39.621    39.621  14.1% |-----|
  rotate_psi:                        9.046     9.046   3.2% ||
Set symmetry:                        0.000     0.000   0.0% |
Other:                               9.409     9.409   3.3% ||
-----------------------------------------------------------
Total:                                       281.687 100.0%

Memory usage: 226.25 MiB
Date: Sun Oct 22 21:30:25 2017
